# vtk DataFile Version 3.0
vtk output
ASCII
DATASET POLYDATA
POINTS 862 float
19.4405 17.3643 11.8361 19.4484 17.3648 11.7895 19.4684 17.3555 11.6333 
19.4828 17.3545 11.4936 19.4826 17.3338 11.2898 19.4798 17.3337 11.2474 
19.48 17.3303 11.2184 19.4724 17.3113 10.9151 19.496 17.2942 10.7017 
19.4981 17.292 10.6871 19.4983 17.2918 10.6852 19.5037 17.2837 10.6359 
19.5123 17.262 10.4413 19.513 17.2514 10.3863 19.5167 17.2427 10.3405 
19.523 17.2388 10.2946 19.5243 17.2381 10.2855 19.5412 17.2256 10.135 
19.542 17.2251 10.1263 19.5459 17.2199 10.0823 19.55 17.217 10.0415 
19.571 17.1989 9.91114 19.5739 17.1953 9.89218 19.5868 17.1822 9.79489 
19.6004 17.1671 9.72019 19.617 17.1581 9.61084 19.6207 17.1596 9.54489 
19.6383 17.1432 9.2552 19.6398 17.1384 9.21954 19.6408 17.1324 9.14032 
19.6442 17.1267 9.07873 19.6452 17.1244 8.99067 19.6506 17.1201 8.92282 
19.6506 17.12 8.92047 19.654 17.1128 8.84037 19.6547 17.1126 8.8314 
19.657 17.1113 8.70282 19.6563 17.1107 8.67206 19.6621 17.1099 8.56655 
19.6728 17.1164 8.45767 19.6763 17.1209 8.42344 19.6799 17.1236 8.39667 
19.6826 17.1238 8.37487 19.6926 17.1268 8.26887 19.6946 17.1268 8.2511 
19.6949 17.1268 8.24904 19.7021 17.1305 8.18011 19.7081 17.1419 8.12071 
19.7091 17.1558 8.04108 19.7102 17.1585 8.02239 19.7102 17.1586 8.02127 
19.7041 17.1671 7.83764 19.7021 17.1679 7.79986 19.7013 17.1704 7.76259 
19.6992 17.1741 7.71497 19.6969 17.1934 7.53505 19.6954 17.1967 7.50286 
19.689 17.2048 7.43901 19.6867 17.2109 7.39837 19.6849 17.2217 7.33965 
19.685 17.2227 7.33275 19.6826 17.2277 7.30653 19.6824 17.228 7.30447 
19.6768 17.2342 7.27176 19.6767 17.2343 7.27166 19.6739 17.2397 7.24616 
19.6722 17.2415 7.23713 19.6705 17.2433 7.22738 19.6602 17.2636 7.14012 
19.659 17.2687 7.12014 19.6573 17.2768 7.09345 19.6528 17.2887 7.03566 
19.652 17.29 7.02923 19.6469 17.2986 6.99172 19.6469 17.2986 6.9916 
19.6464 17.2996 6.98415 19.6301 17.3198 6.81119 19.618 17.3298 6.7184 
19.6152 17.3347 6.69486 19.598 17.359 6.57331 19.5975 17.3594 6.56992 
19.5867 17.3696 6.49655 19.5732 17.3841 6.41509 19.5567 17.4034 6.32638 
19.5545 17.4056 6.31375 19.5286 17.4307 6.21592 19.524 17.4337 6.19804 
19.4941 17.4561 6.11062 19.4879 17.4604 6.08565 19.4857 17.4613 6.07798 
19.4734 17.4678 6.04418 19.4495 17.4834 5.97292 19.4197 17.49 5.87366 
19.4084 17.4932 5.84842 19.4064 17.4938 5.8438 19.3877 17.5042 5.8061 
19.3066 17.5192 5.62426 19.3003 17.5206 5.61394 19.1996 17.5393 5.39517 
19.1265 17.5519 5.26223 19.0968 17.56 5.20722 19.0081 17.5741 5.06457 
18.9856 17.578 5.02614 18.9835 17.5781 5.02324 18.9576 17.5842 4.98529 
18.9156 17.5944 4.91439 18.8019 17.6136 4.76612 18.7154 17.6133 4.67123 
18.6621 17.6107 4.61243 18.6574 17.611 4.60813 18.5451 17.6299 4.52639 
18.4751 17.6432 4.48138 18.4728 17.6436 4.48012 18.3368 17.6633 4.38757 
18.3347 17.6642 4.38543 18.3319 17.6651 4.38285 18.2846 17.6817 4.332 
18.177 17.7064 4.212 18.1559 17.7161 4.18059 18.1484 17.7193 4.17047 
18.1392 17.7235 4.15939 18.0849 17.7371 4.07021 18.0577 17.7438 4.03271 
17.9704 17.7746 3.88573 17.8191 17.811 3.60831 17.7951 17.817 3.57913 
17.7516 17.8252 3.50877 17.6451 17.8413 3.33776 17.5751 17.8431 3.24716 
17.5694 17.8443 3.23811 17.4601 17.8545 3.10138 17.3843 17.8504 3.01005 
17.375 17.8492 2.9998 17.2833 17.8315 2.90113 17.2481 17.8223 2.86546 
17.1814 17.7881 2.79402 17.1695 17.7854 2.78394 17.0551 17.7383 2.68268 
16.9943 17.7164 2.638 16.9772 17.7098 2.62627 16.8822 17.6708 2.56447 
16.8007 17.6375 2.51837 16.7099 17.5771 2.46227 16.687 17.5644 2.44668 
16.5743 17.5091 2.38818 16.5446 17.4946 2.37432 16.5312 17.4876 2.36909 
16.4283 17.4488 2.3284 16.4247 17.4472 2.32706 16.326 17.3896 2.28441 
16.2947 17.3734 2.27665 16.2842 17.3677 2.27454 16.2689 17.3581 2.269 
16.1833 17.3091 2.25361 16.1242 17.2725 2.24788 16.0682 17.2337 2.24491 
16.0156 17.1968 2.24554 16.0153 17.1965 2.24549 16.0014 17.189 2.24667 
15.9961 17.1862 2.24768 15.9669 17.1697 2.25503 15.9273 17.1369 2.25986 
15.8703 17.0886 2.27253 15.7792 17.0058 2.29737 15.7589 16.9869 2.30442 
15.7389 16.9717 2.31227 15.7373 16.9707 2.3129 15.6968 16.9436 2.32969 
15.66 16.9168 2.34164 15.631 16.8916 2.35167 15.6305 16.8913 2.35183 
15.5951 16.8634 2.3645 15.5851 16.8551 2.36841 15.5237 16.812 2.39325 
15.514 16.806 2.3973 15.5078 16.802 2.39942 15.4867 16.786 2.40698 
15.4867 16.7859 2.40701 15.4685 16.7722 2.41298 15.4413 16.7513 2.42251 
15.4303 16.7441 2.4266 15.3865 16.7103 2.44414 15.3602 16.6916 2.45309 
15.3179 16.6685 2.46833 15.259 16.6338 2.49375 15.2309 16.6109 2.50363 
15.2212 16.6043 2.50703 15.1893 16.5815 2.5206 15.1775 16.5723 2.52618 
15.1309 16.5321 2.54487 15.1262 16.5285 2.54675 15.125 16.5276 2.54721 
15.0242 16.4535 2.58804 15.0066 16.4399 2.59603 14.9927 16.4303 2.60132 
14.9223 16.3767 2.63158 14.8969 16.3542 2.63935 14.8968 16.354 2.63942 
14.8586 16.3194 2.65661 14.7847 16.2614 2.68572 14.7737 16.2511 2.68814 
14.7635 16.2431 2.68997 14.7475 16.2296 2.69268 14.7356 16.2196 2.69582 
14.7019 16.191 2.70824 14.6648 16.1642 2.7211 14.6052 16.1173 2.74156 
14.5966 16.1106 2.74575 14.475 16.0017 2.81512 14.4481 15.9806 2.83184 
14.4346 15.9686 2.84072 14.4104 15.947 2.85992 14.4104 15.947 2.85993 
14.4075 15.9444 2.86199 14.3362 15.8742 2.92975 14.3105 15.8488 2.9595 
14.2936 15.8341 2.97583 14.2743 15.8145 2.9963 14.2613 15.8013 3.01114 
14.2074 15.7441 3.07594 14.0847 15.5938 3.26549 14.0845 15.5936 3.26569 
14.0763 15.5853 3.2753 14.0761 15.5851 3.27549 14.0417 15.5404 3.3227 
14.0416 15.5403 3.3228 14.0334 15.5283 3.33507 13.9761 15.4399 3.43396 
13.9746 15.4375 3.4369 13.9347 15.3866 3.49998 13.9251 15.3733 3.51588 
13.9068 15.3486 3.54106 13.8896 15.3299 3.5653 13.8446 15.2891 3.62048 
13.8095 15.2527 3.67266 13.727 15.1966 3.79976 13.7147 15.1897 3.81787 
13.6408 15.1368 3.92888 13.5891 15.092 4.01644 13.5338 15.0461 4.10062 
13.5255 15.0399 4.1124 13.5015 15.0193 4.15207 13.4024 14.9585 4.30509 
13.3901 14.949 4.32677 13.3879 14.9472 4.33129 13.3822 14.9428 4.34138 
13.3526 14.9195 4.39418 13.3385 14.9087 4.41774 13.2888 14.8646 4.50237 
13.265 14.8357 4.55485 13.2454 14.8157 4.59905 13.2078 14.768 4.73182 
13.1865 14.7446 4.80224 13.1192 14.6608 5.21328 13.1172 14.6562 5.23071 
13.1161 14.6549 5.2369 13.1033 14.6397 5.29821 13.0736 14.5969 5.52135 
13.0643 14.5894 5.59766 13.0631 14.5881 5.6106 13.0333 14.5568 5.78258 
13.029 14.549 5.82847 13.026 14.545 5.87568 13.0159 14.5435 5.97605 
13.0159 14.5435 5.97619 13.0129 14.5437 6.00992 13.0078 14.545 6.04701 
13.0057 14.547 6.06551 12.9868 14.5485 6.16126 12.9858 14.5485 6.16485 
12.9673 14.5536 6.23201 12.9646 14.554 6.23986 12.9065 14.5783 6.47155 
12.8908 14.589 6.53405 12.8459 14.6251 6.72626 12.8351 14.6366 6.80529 
12.8329 14.6439 6.84569 12.8111 14.7134 7.10369 12.8101 14.7162 7.11838 
12.7674 14.8309 7.49024 12.7316 14.8748 7.68907 12.6777 14.8959 7.96799 
12.6676 14.896 8.00221 12.6513 14.8869 8.0812 12.6493 14.8851 8.09278 
12.6313 14.8737 8.17615 12.6035 14.8477 8.28649 12.5716 14.825 8.40112 
12.5281 14.7888 8.53788 16.9173 17.6324 -0.201275 16.9163 17.6327 -0.198981 
16.9016 17.6316 -0.167173 16.8802 17.6296 -0.110685 16.861 17.6239 -0.0336398 
16.8597 17.624 -0.0268553 16.8591 17.6239 -0.024505 16.8401 17.6259 0.0373396 
16.8394 17.6259 0.0394344 16.8333 17.626 0.0551779 16.8207 17.6296 0.0836939 
16.8174 17.6308 0.0909096 16.796 17.6349 0.141215 16.7953 17.635 0.142757 
16.7861 17.6366 0.167295 16.7768 17.6388 0.187846 16.7618 17.6436 0.227659 
16.7501 17.6448 0.269134 16.7357 17.646 0.319709 16.727 17.6472 0.346773 
16.7139 17.6488 0.381558 16.7109 17.6492 0.391884 16.7011 17.6433 0.419177 
16.6999 17.6434 0.421979 16.6836 17.6454 0.465766 16.6829 17.6455 0.467262 
16.6736 17.6464 0.490353 16.6562 17.6483 0.541285 16.6542 17.648 0.547123 
16.6513 17.6474 0.557785 16.6345 17.644 0.60489 16.6342 17.6439 0.605608 
16.6245 17.6414 0.627326 16.6142 17.6395 0.650998 16.6052 17.6358 0.676229 
16.5914 17.6313 0.709154 16.587 17.6298 0.720929 16.5769 17.6237 0.746628 
16.5743 17.6217 0.754867 16.5714 17.6199 0.762653 16.556 17.6143 0.801179 
16.548 17.6085 0.819524 16.5358 17.5983 0.844473 16.5251 17.5877 0.87437 
16.5208 17.5852 0.885432 16.5208 17.5852 0.885482 16.5157 17.5832 0.897997 
16.5098 17.5808 0.913033 16.5086 17.5805 0.915722 16.4969 17.5761 0.94115 
16.4967 17.576 0.941536 16.4915 17.5738 0.957219 16.4883 17.5717 0.966039 
16.4883 17.5716 0.966145 16.4784 17.5661 0.992591 16.4783 17.566 0.993016 
16.4716 17.5612 1.01032 16.4691 17.5604 1.01617 16.4633 17.5583 1.03332 
16.4626 17.5579 1.03519 16.4562 17.5529 1.05277 16.4558 17.5525 1.0541 
16.4336 17.5346 1.11929 16.4336 17.5345 1.11936 16.4307 17.5315 1.12728 
16.4306 17.5315 1.12733 16.4275 17.5272 1.13953 16.4275 17.5271 1.13971 
16.4135 17.5161 1.18445 16.4134 17.516 1.18485 16.4081 17.5126 1.20101 
16.408 17.5125 1.20131 16.4041 17.5093 1.21602 16.4041 17.5093 1.21605 
16.4018 17.5068 1.22366 16.4018 17.5068 1.22376 16.3973 17.5038 1.23568 
16.3973 17.5038 1.23572 16.3933 17.5018 1.245 16.3933 17.5018 1.24514 
16.3925 17.5013 1.24759 16.3925 17.5013 1.24761 16.3911 17.5004 1.25188 
16.3909 17.5003 1.25231 16.3833 17.4945 1.27348 16.379 17.4915 1.28477 
16.3677 17.4796 1.33049 16.3677 17.4796 1.33058 16.3605 17.4757 1.35255 
16.3603 17.4755 1.35314 16.3422 17.4635 1.40167 16.3422 17.4635 1.40167 
16.3413 17.463 1.40391 16.3341 17.4534 1.44633 16.3339 17.4533 1.44697 
16.3271 17.4424 1.4866 16.3209 17.4371 1.51152 16.318 17.4325 1.5302 
16.3163 17.4292 1.54309 16.3157 17.4269 1.55336 16.287 17.4004 1.64311 
16.2708 17.3794 1.70513 16.2708 17.3793 1.70518 16.2698 17.3784 1.70839 
16.2601 17.3705 1.73612 16.2502 17.3644 1.75311 16.2179 17.3409 1.8062 
16.2179 17.3409 1.80621 16.2168 17.34 1.80802 16.2139 17.3376 1.81278 
16.1884 17.3203 1.85649 16.1865 17.319 1.85949 16.1642 17.3027 1.8876 
16.1301 17.2696 1.94701 16.1241 17.2653 1.95662 16.1127 17.2563 1.9851 
16.0153 17.1828 2.09148 15.9745 17.1561 2.1377 15.9503 17.1355 2.16157 
[...]
POINT_DATA 862
FIELD FieldData 3
MaximumInscribedSphereRadius 1 862 double
1.21689 1.21143 1.19436 1.18156 1.16304 1.15825 1.15294 1.1222 1.11033 
1.10974 1.10966 1.10723 1.10529 1.10803 1.10997 1.10886 1.10861 1.11406 
1.11476 1.11657 1.1149 1.10961 1.10832 1.1011 1.09626 1.08553 1.07679 
1.06379 1.06512 1.06817 1.0713 1.07665 1.08145 1.08152 1.08047 1.08032 
1.07749 1.07719 1.07415 1.07576 1.07632 1.07577 1.07399 1.06812 1.06736 
1.06725 1.06263 1.05967 1.05402 1.05255 1.05241 1.03877 1.03862 1.03791 
1.03739 1.0426 1.04576 1.05167 1.05563 1.06178 1.06251 1.06539 1.06561 
1.06844 1.06845 1.07064 1.07108 1.07144 1.07466 1.07562 1.07678 1.07422 
1.07387 1.07206 1.07205 1.0713 1.06341 1.06165 1.06018 1.05754 1.0576 
1.05899 1.06028 1.06186 1.06239 1.06485 1.06548 1.06465 1.06423 1.06392 
1.06195 1.05948 1.06022 1.05857 1.05827 1.05385 1.04619 1.04588 1.04915 
1.06599 1.07428 1.10322 1.11295 1.11359 1.1191 1.12966 1.15462 1.17854 
1.19183 1.1925 1.19764 1.20362 1.20379 1.21063 1.21024 1.20947 1.19225 
1.16157 1.15107 1.14775 1.14428 1.10842 1.09398 1.04777 0.984437 0.980524 
0.971861 0.950202 0.944256 0.943445 0.924793 0.921312 0.920115 0.903276 0.896004 
0.880055 0.87757 0.856665 0.851412 0.850977 0.852286 0.860039 0.878108 0.882489 
0.904875 0.911217 0.914011 0.931997 0.932986 0.960809 0.967013 0.968892 0.971556 
0.980448 0.986851 0.994482 1.00171 1.00176 1.00202 1.00165 0.999744 0.997213 
0.994023 0.995941 0.997513 0.999099 0.999314 1.00509 1.00908 1.01246 1.01254 
1.01881 1.02094 1.03519 1.03786 1.03919 1.04371 1.04373 1.04773 1.0543 
1.05704 1.06889 1.07586 1.0868 1.10308 1.11219 1.11487 1.12265 1.12577 
1.13868 1.13996 1.14023 1.16893 1.17468 1.17867 1.19755 1.20551 1.20556 
1.21785 1.23947 1.24333 1.24576 1.24934 1.25169 1.25826 1.26371 1.27425 
1.27563 1.29894 1.30321 1.3051 1.30739 1.30739 1.30783 1.31736 1.32047 
1.32237 1.32372 1.32448 1.33148 1.36726 1.36733 1.37035 1.37039 1.38064 
1.38066 1.3831 1.40672 1.4071 1.41174 1.4134 1.41591 1.4168 1.41637 
1.41437 1.40467 1.40283 1.39537 1.39342 1.39551 1.39599 1.39647 1.40571 
1.40772 1.40794 1.40828 1.40998 1.41197 1.41917 1.42235 1.42443 1.41675 
1.40934 1.39414 1.39544 1.39573 1.39904 1.41962 1.42922 1.4315 1.46639 
1.4758 1.48424 1.49984 1.49987 1.50623 1.51236 1.51493 1.52244 1.52266 
1.52579 1.5258 1.52564 1.52726 1.52128 1.51907 1.51569 1.48398 1.48257 
1.45447 1.461 1.48011 1.48376 1.48621 1.48643 1.49342 1.49947 1.51403 
1.53479 0.394844 0.394689 0.392511 0.391998 0.395858 0.395856 0.395813 0.395237 
0.395325 0.395678 0.394548 0.394075 0.392058 0.392032 0.390586 0.390182 0.388254 
0.386943 0.384257 0.383476 0.383195 0.383176 0.38289 0.382815 0.382498 0.382489 
0.381977 0.383569 0.383725 0.384153 0.386257 0.386299 0.387585 0.390384 0.393274 
0.395987 0.397532 0.400835 0.401859 0.402827 0.407451 0.411016 0.417134 0.423339 
0.425413 0.425424 0.428248 0.432014 0.432688 0.439117 0.439197 0.442452 0.444393 
0.44442 0.451096 0.451225 0.456446 0.45794 0.461501 0.461901 0.465678 0.466072 
0.48537 0.485394 0.488339 0.488354 0.492004 0.492061 0.506395 0.506543 0.512544 
0.512653 0.517987 0.517997 0.52049 0.520521 0.524314 0.524326 0.527314 0.527354 
0.528087 0.528092 0.529362 0.529486 0.535588 0.539098 0.554263 0.554293 0.561753 
0.561968 0.57964 0.579644 0.58053 0.597301 0.597572 0.614217 0.62429 0.631376 
0.636479 0.6406 0.681503 0.713858 0.713885 0.715538 0.729445 0.737563 0.763417 
0.76342 0.764337 0.766674 0.786575 0.787895 0.799752 0.828839 0.833456 0.849111 
0.895674 0.918904 0.930567 0.946598 0.949858 0.995828 0.995913 0.996832 0.999099 
0.999314 1.00509 1.00908 1.01246 1.01254 1.01881 1.02094 1.03519 1.03786 
1.03919 1.04371 1.04373 1.04773 1.0543 1.05704 1.06889 1.07586 1.0868 
1.10308 1.11219 1.11487 1.12265 1.12577 1.13868 1.13996 1.14023 1.16893 
1.17468 1.17867 1.19755 1.20551 1.20556 1.21785 1.23947 1.24333 1.24576 
1.24934 1.25169 1.25826 1.26371 1.27425 1.27563 1.29894 1.30321 1.3051 
1.30739 1.30739 1.30783 1.31736 1.32047 1.32237 1.32372 1.32448 1.33148 
1.36726 1.36733 1.37035 1.37039 1.38064 1.38066 1.3831 1.40672 1.4071 
1.41174 1.4134 1.41591 1.4168 1.41637 1.41437 1.40467 1.40283 1.39537 
1.39342 1.39551 1.39599 1.39647 1.40571 1.40772 1.40794 1.40828 1.40998 
1.41197 1.41917 1.42235 1.42443 1.41675 1.40934 1.39414 1.39544 1.39573 
1.39904 1.41962 1.42922 1.4315 1.46639 1.4758 1.48424 1.49984 1.49987 
1.50623 1.51236 1.51493 1.52244 1.52266 1.52579 1.5258 1.52564 1.52726 
1.52128 1.51907 1.51569 1.48398 1.48257 1.45447 1.461 1.48011 1.48376 
1.48621 1.48643 1.49342 1.49947 1.51403 1.53479 0.566939 0.566461 0.565913 
0.564911 0.561678 0.558279 0.550551 0.548136 0.555474 0.55996 0.567424 0.572012 
0.572147 0.583293 0.583348 0.590177 0.604816 0.618683 0.624145 0.63367 0.634053 
0.647907 0.698993 0.700993 0.706997 0.707146 0.725552 0.72561 0.740127 0.741814 
0.747694 0.750272 0.750344 0.756277 0.765405 0.778414 0.783003 0.787032 0.793766 
0.796961 0.81748 0.817623 0.826413 0.826425 0.829388 0.860199 0.860199 0.860306 
0.881939 0.89952 0.925624 0.934276 0.934846 0.952548 0.957534 0.957802 0.972972 
0.987089 0.997008 1.01016 1.01265 1.01367 1.02368 1.04905 1.09303 1.11439 
1.19542 1.22889 1.22895 1.24473 1.25974 1.27657 1.28975 1.31052 1.34363 
1.34364 1.34481 1.34483 1.34769 1.36656 1.39272 1.39913 1.42044 1.42044 
1.42077 1.41437 1.40467 1.40283 1.39537 1.39342 1.39551 1.39599 1.39647 
1.40571 1.40772 1.40794 1.40828 1.40998 1.41197 1.41917 1.42235 1.42443 
1.41675 1.40934 1.39414 1.39544 1.39573 1.39904 1.41962 1.42922 1.4315 
1.46639 1.4758 1.48424 1.49984 1.49987 1.50623 1.51236 1.51493 1.52244 
1.52266 1.52579 1.5258 1.52564 1.52726 1.52128 1.51907 1.51569 1.48398 
1.48257 1.45447 1.461 1.48011 1.48376 1.48621 1.48643 1.49342 1.49947 
1.51403 1.53479 0.27745 0.27437 0.260873 0.264572 0.268024 0.268583 0.268639 
0.268783 0.267886 0.267525 0.273456 0.273531 0.277325 0.278309 0.279275 0.280469 
0.280781 0.281061 0.282735 0.283026 0.286073 0.287443 0.289513 0.290711 0.291755 
0.291761 0.293376 0.293387 0.296327 0.299671 0.299918 0.301675 0.302771 0.306965 
0.31103 0.312379 0.312913 0.313127 0.3161 0.31925 0.323164 0.327052 0.328237 
0.328255 0.332541 0.33264 0.335632 0.336586 0.338605 0.338897 0.345934 0.345972 
0.347822 0.347853 0.35166 0.361095 0.369011 0.373647 0.37368 0.376381 0.386191 
0.394268 0.405058 0.407396 0.422429 0.42247 0.424145 0.42429 0.460336 0.470319 
0.47045 0.50316 0.503625 0.532258 0.532269 0.535008 0.563198 0.566485 0.573703 
0.60058 0.614709 0.626878 0.636858 0.671139 0.698146 0.704428 0.73634 0.789544 
0.795877 0.828188 0.863802 0.870415 0.870489 0.92538 0.930587 0.938778 0.984114 
1.00357 1.00751 1.01929 1.02506 1.0342 1.06042 1.07536 1.09136 1.13485 
1.13558 1.1412 1.15644 1.17357 1.20077 1.20555 1.24626 1.25072 1.25854 
1.26 1.27657 1.28975 1.31052 1.34363 1.34364 1.34481 1.34483 1.34769 
1.36656 1.39272 1.39913 1.42044 1.42044 1.42077 1.41437 1.40467 1.40283 
1.39537 1.39342 1.39551 1.39599 1.39647 1.40571 1.40772 1.40794 1.40828 
1.40998 1.41197 1.41917 1.42235 1.42443 1.41675 1.40934 1.39414 1.39544 
1.39573 1.39904 1.41962 1.42922 1.4315 1.46639 1.4758 1.48424 1.49984 
1.49987 1.50623 1.51236 1.51493 1.52244 1.52266 1.52579 1.5258 1.52564 
1.52726 1.52128 1.51907 1.51569 1.48398 1.48257 1.45447 1.461 1.48011 
1.48376 1.48621 1.48643 1.49342 1.49947 1.51403 1.53479 
EdgeArray 2 862 int
23082 23082 23017 23017 22756 22756 22644 16142 2753 
2753 7876 16974 16969 16974 21713 21713 21719 21719 
21718 5942 10105 20007 13595 10105 4871 4871 3695 
8554 8554 8554 7485 13597 13597 13597 13577 13577 
22004 8548 15763 15763 13568 13568 3922 3922 5955 
4634 10986 10991 10984 10989 10981 10981 21934 21934 
11867 11867 13711 12532 11253 11862 446 12510 17501 
17501 19594 19594 11355 17502 19592 19592 17510 19591 
14482 14482 14481 14481 11521 11521 13769 13769 13770 
13770 3568 3568 10783 10783 4234 4234 4229 2033 
4229 7266 10683 10683 4891 10679 1028 6241 4719 
17659 17659 17669 17200 17200 15586 15587 20968 15587 
16572 16572 4375 4375 11139 11139 16125 16125 21659 
21658 21659 21654 21654 21654 17518 17521 11140 17518 
11140 11140 13530 11140 13530 13530 18296 7461 16599 
16599 13529 13536 13529 13529 12668 12668 16830 10069 
10069 19793 11702 11702 20630 11702 20630 20630 20763 
20763 20265 20265 20643 20643 20266 20266 18818 18816 
18820 18820 14084 14084 12716 12716 14085 9855 16670 
16670 19642 19642 20573 20573 20354 20355 21111 20355 
21111 21111 20350 2155 3761 3761 17342 3760 17342 
17342 13889 13889 18272 18272 18270 18270 17134 17134 
17140 17140 13205 18768 18186 13205 13203 18187 13207 
12034 12036 11744 12874 12874 14321 14321 13341 13341 
15560 15560 15568 15567 15569 15569 15566 6811 12881 
6811 15538 15538 10737 11371 10737 21642 274 13673 
13674 13674 13675 17009 17008 17009 4496 4496 20518 
11995 11994 11995 4068 4068 15037 15037 19778 15038 
20570 20570 19769 19122 16414 16414 17609 14166 13221 
13221 15824 15824 21343 21343 12274 12274 20366 20366 
20293 20293 20292 20291 20054 11059 15987 15985 15987 
11564 14399 11564 15986 15986 13914 13913 13916 13915 
11842 11543 11852 17237 18155 18153 12091 20415 19712 
12091 19570 19570 19314 13694 13618 4613 12103 13618 
18225 11063 18226 12107 13613 12416 14287 14526 14526 
309 18476 18477 18476 18475 15939 18475 15925 15930 
15929 10956 12040 15934 560 13394 560 560 12423 
560 12423 12423 15507 11232 15507 15507 14050 15507 
14050 14050 13715 4339 13715 13715 11340 4174 17284 
14468 14468 14468 17282 14468 17282 17282 15504 9924 
15504 11694 14470 11694 13332 968 13332 13332 18312 
11494 11494 11494 4498 10953 4498 5939 14769 18310 
14769 14769 18315 18316 18316 18316 18309 19948 19946 
18317 19947 15177 5519 21183 21183 21183 21181 21183 
21181 21181 18017 93 93 93 15491 17013 17023 
17013 17023 17023 17022 17022 13933 13933 19476 17020 
19476 19476 14382 14382 14389 14387 15071 14387 15071 
15071 18231 15071 18231 18231 15348 19801 15348 15348 
22304 14914 18233 14914 18233 18233 13309 13309 11048 
11048 13404 11048 13404 13404 15328 13404 15328 15328 
15327 15328 15327 15327 13005 13005 17593 13087 17602 
13087 17602 17600 17600 17600 13832 17349 2761 11761 
20377 20377 20375 20375 10921 16720 21351 21351 14725 
13853 13841 13847 13841 13855 9295 6908 16758 16758 
22378 22379 22378 22377 22375 22377 4113 9296 4113 
17308 17308 17308 17309 2431 13062 17306 14618 14618 
17195 17195 9759 9759 18650 18638 9533 18638 14913 
9533 22137 22135 22138 22136 22138 17900 17900 17900 
18900 18898 18897 18897 12133 12133 22081 12133 22081 
22081 22076 22082 22076 22077 14357 15895 15895 15895 
22069 22069 1465 12818 15484 15484 19522 19522 16514 
16514 14511 11683 14516 14516 21473 21470 21470 20587 
11180 11180 23993 23993 116 4849 25663 116 25663 
23858 25663 25663 25667 25667 23835 23383 7730 7730 
26211 26211 24861 24861 24638 24620 13137 13137 24529 
24529 24350 24350 24251 12579 13480 24251 1 1 
319 24127 24170 24127 16761 16761 14064 16762 12272 
12272 18672 11286 13512 18670 18669 15132 14010 14009 
14012 14012 6553 6553 13502 12246 17318 22364 17318 
7029 22367 22367 20445 22369 21450 21449 21450 9411 
17310 17323 17323 13046 13046 13046 15239 15236 15234 
15234 16049 15234 16049 16049 4404 742 9672 9672 
15552 12220 2728 15552 16487 2728 16487 16490 11576 
16491 15913 11576 15913 15913 10018 14033 20543 20545 
20543 20543 20544 20543 20544 20544 12469 12469 20471 
15309 20471 20471 20473 20471 20473 20473 9062 9062 
8387 9062 8387 8387 15221 8387 15221 15221 14131 
15220 14131 14131 14940 12446 14940 14940 16636 14940 
16636 16636 16635 16636 16635 16635 16647 16635 16647 
16647 16643 16647 16643 16643 21550 16643 21550 21550 
21553 21550 21553 21553 16624 21553 16624 16624 16628 
16624 16628 16628 16629 16628 16629 16629 16630 16629 
16630 16630 16627 16630 16627 16627 16485 16627 16485 
16485 22108 4541 22108 22108 22111 22108 22111 22111 
22113 22111 22113 22113 22112 22113 22112 22112 14955 
14955 687 14955 687 687 11562 11562 18999 18999 
14220 12025 14220 14220 19001 19001 6256 6256 15300 
6256 15300 15300 15301 15283 15283 15283 15285 15285 
12977 15285 12977 12977 12109 15288 14178 14179 14178 
14175 15959 7206 15918 16827 15918 14248 14248 11979 
14246 14246 14242 14242 15942 12424 15940 15942 15941 
15943 12154 12040 13394 12040 560 13394 560 560 
12423 560 12423 12423 15507 11232 15507 15507 14050 
15507 14050 14050 13715 4339 13715 13715 11340 4174 
17284 14468 14468 14468 17282 14468 17282 17282 15504 
9924 15504 11694 14470 11694 13332 968 13332 13332 
18312 11494 11494 11494 4498 10953 4498 5939 14769 
18310 14769 14769 18315 18316 18316 18316 18309 19948 
19946 18317 19947 15177 5519 21183 21183 21183 21181 
21183 21181 21181 18017 93 93 93 15491 17013 
17023 17013 17023 17023 17022 17022 13933 13933 19476 
17020 19476 19476 14382 14382 14389 14387 15071 14387 
15071 15071 18231 15071 18231 18231 15348 19801 15348 
15348 22304 14914 18233 14914 18233 18233 13309 13309 
11048 11048 13404 11048 13404 13404 15328 13404 15328 
15328 15327 15328 15327 15327 13005 13005 17593 13087 
17602 13087 17602 17600 17600 17600 13832 17349 2761 
11761 20377 20377 20375 20375 10921 16720 21351 21351 
14725 13853 13841 13847 13841 13855 9295 6908 16758 
16758 22378 22379 22378 22377 22375 22377 4113 9296 
4113 17308 17308 17308 17309 2431 13062 17306 14618 
14618 17195 17195 9759 9759 18650 18638 9533 18638 
14913 9533 22137 22135 22138 22136 22138 17900 17900 
17900 18900 18898 18897 18897 12133 12133 22081 12133 
22081 22081 22076 22082 22076 22077 14357 15895 15895 
15895 22069 22069 1465 12818 15484 15484 19522 19522 
16514 16514 14511 11683 14516 14516 21473 21470 21470 
20587 11180 11180 23993 23993 116 4849 25663 116 
25663 23858 25663 25663 25667 25667 23835 23383 7730 
7730 26211 26211 27461 27461 27451 26966 27320 27029 
26803 11160 26964 11160 26869 26869 25135 25135 25054 
25054 24984 24984 14424 14424 7346 12687 12687 12687 
14427 12687 14427 14427 14432 14427 14432 14432 18329 
18329 18327 18327 14348 17751 17751 17751 5980 17750 
5980 5980 2986 2986 17991 13953 17991 17991 2183 
17991 2183 2183 12698 2183 12698 12698 22054 22052 
22055 22055 22054 22054 22051 22054 22051 22051 8042 
8042 18352 21801 18352 18352 17577 18345 18342 18342 
8043 16188 16188 16188 19196 16188 19196 19196 19197 
19196 19197 19197 9429 9429 13277 9429 13277 13277 
13951 13951 13952 13952 5978 14099 14101 13942 15361 
13280 15386 15385 15385 15384 15384 15387 15387 15387 
15388 15367 15367 14341 17161 15068 15068 13948 13948 
13948 18101 13010 14582 14581 11466 11466 17024 17024 
21824 21824 21826 21826 11656 21826 11656 11656 4092 
4092 21992 21992 19420 12465 15242 17677 13409 13409 
13410 13409 13410 13410 13413 13410 13413 13413 17352 
17352 17351 16477 16471 11051 423 423 11761 423 
11761 11761 20377 20377 20375 20375 10921 16720 21351 
21351 14725 13853 13841 13847 13841 13855 9295 6908 
16758 16758 22378 22379 22378 22377 22375 22377 4113 
9296 4113 17308 17308 17308 17309 2431 13062 17306 
14618 14618 17195 17195 9759 9759 18650 18638 9533 
18638 14913 9533 22137 22135 22138 22136 22138 17900 
17900 17900 18900 18898 18897 18897 12133 12133 22081 
12133 22081 22081 22076 22082 22076 22077 14357 15895 
15895 15895 22069 22069 1465 12818 15484 15484 19522 
19522 16514 16514 14511 11683 14516 14516 21473 21470 
21470 20587 11180 11180 23993 23993 116 4849 25663 
116 25663 23858 25663 25663 25667 25667 23835 23383 
7730 7730 26211 26211 28093 28093 27838 27838 27832 
27832 17748 17748 11312 4686 11312 21317 11636 21316 
12804 12804 15170 17088 17445 17445 11105 11113 11113 
13626 13626 14261 10750 17881 17881 17885 20065 14263 
20066 20065 20066 20066 17755 17755 18905 17883 19677 
19677 18902 17832 17832 17832 21596 21594 21596 21596 
21597 21596 21597 21597 21591 21597 21591 21591 17833 
17833 14815 17835 14814 14815 14817 14817 14605 14630 
11495 11487 11495 11495 7380 1679 11379 7380 11379 
11379 11336 13398 11336 11336 11337 11338 11337 11337 
11333 11337 11333 11333 6736 11333 6736 6736 12635 
11431 13697 12431 13697 11334 11334 11334 16997 11334 
16997 16997 17000 16997 17000 17000 15796 4236 15143 
5493 15143 15143 13698 15143 13698 13698 22529 22525 
22531 22531 22530 22527 22527 5001 5001 5001 22471 
5001 22471 22471 19053 22471 19053 19053 11952 11952 
22175 11952 22175 22175 22256 22175 22256 22256 22254 
22256 22254 22254 22251 22250 22250 19669 19669 19668 
19980 19973 19980 19979 19671 19979 19671 4096 14024 
18107 3521 14022 12350 14022 13286 14020 11549 15435 
15435 12396 15616 12396 15616 15616 15615 15613 15613 
15613 20116 10857 20116 20116 20113 20113 9122 9122 
15355 10940 10940 15357 11325 11326 2503 11326 2574 
2574 14588 3954 14588 19531 17025 17025 3884 17029 
17029 17030 17026 17030 17026 17027 17027 16263 16263 
16263 17035 10795 10890 11656 12575 11656 4092 12575 
16213 4092 21992 21992 19420 12465 15242 17677 13409 
13409 13410 13409 13410 13410 13413 13410 13413 13413 
17352 17352 17351 16477 16471 11051 423 423 11761 
423 11761 11761 20377 20377 20375 20375 10921 16720 
21351 21351 14725 13853 13841 13847 13841 13855 9295 
6908 16758 16758 22378 22379 22378 22377 22375 22377 
4113 9296 4113 17308 17308 17308 17309 2431 13062 
17306 14618 14618 17195 17195 9759 9759 18650 18638 
9533 18638 14913 9533 22137 22135 22138 22136 22138 
17900 17900 17900 18900 18898 18897 18897 12133 12133 
22081 12133 22081 22081 22076 22082 22076 22077 14357 
15895 15895 15895 22069 22069 1465 12818 15484 15484 
19522 19522 16514 16514 14511 11683 14516 14516 21473 
21470 21470 20587 11180 11180 23993 23993 116 4849 
25663 116 25663 23858 25663 25663 25667 25667 23835 
23383 7730 7730 26211 26211 
EdgePCoordArray 1 862 double
0 0 0 0.072 0 0.316 0.468 0 0 
0.176 0.796 0.62 0 0.264 0 0.824 0 0 
0.96 0 0 0 0.076 0.448 0.552 0 0 
0 0.792 0.612 0.684 0 0 0.02 0 0.976 
0 0 0 0 0 0 0 0 0.04 
0.124 0 0.66 0.048 0.932 0.016 0 0.268 0.516 
0 0 0 0 0.748 0.888 0 0.028 0.928 
0 0.996 0 0.396 0 0.46 0 0 0.712 
0.372 0 0.984 0 0 0 0 0 0.992 
0 0 0 0.988 0 0 0 0.912 0.828 
0 0.016 0 0.156 0 0 0 0 0 
0 0.916 0.108 0.976 0.028 0.336 0 0 0 
0 0.024 0 0.964 0.952 0 0.98 0.956 0.092 
0 0.868 0.2 0 0.556 0.672 0 0 0.304 
0 0.784 0 0.152 0 0 0 0 0 
0 0.06 0.132 0.24 0.112 0.328 0 0.68 0.516 
0.832 0.22 0.76 0.028 0.964 0 0.204 0.524 0.66 
0.58 0.712 0.584 0.956 0.044 0.552 0.612 0.668 0.708 
0.536 0.084 0.512 0 0.964 0 0.704 0 0.988 
0 0.928 0 0.02 0.136 0 0.996 0 0.5 
0.012 0.952 0.728 0 0.06 0 0.94 0.072 0.848 
0 0.364 0 0.884 0.12 0.108 0.648 0 0.996 
0 0.556 0 0.2 0.628 0 0 0 0.248 
0 0 0.776 0.664 0 0.996 0 0.42 0 
0.604 0.416 0 0 0 0.98 0 0.996 0 
0.992 0 0 0.024 0.136 0.328 0 0.924 0.72 
0 0 0.188 0 0.14 0.776 0.748 0.22 0 
0.888 0.928 0.848 0.072 0.196 0 0.052 0.8 0 
0 0 0.952 0.94 0.468 0.552 0.064 0.048 0 
0.756 0 0 0.996 0 0.564 0.012 0.948 0 
0 0.964 0 0 0 0.172 0 0.38 0.736 
0 0 0.112 0.72 0.116 0 0 0.004 0 
0 0 0.068 0 0 0 0.12 0.816 0 
0.092 0.784 0 0.932 0 0.98 0.456 0.444 0.384 
0 0 0.38 0.136 0.544 0 0.976 0.072 0.088 
0.544 0.884 0 0.756 0 0.968 0 0.028 0 
0.188 0.744 0.884 0.86 0.864 0.824 0 0.66 0.376 
0 0.996 0 0 0.956 0 0.976 0 0 
0.996 0 0.976 0 0.928 0 0.956 0 0.98 
0 0.992 0 0.996 0 0.996 0 0.976 0 
0.98 0 0.996 0 0.992 0 0.996 0 0.948 
0 0.996 0 0.98 0 0.992 0 0.996 0 
0.988 0 0.996 0 0 0.984 0 0 0 
0.524 0 0 0 0.984 0 0.18 0 0 
0.996 0 0.008 0.056 0.028 0.136 0.068 0.292 0.088 
0 0 0.704 0.86 0.832 0.964 0.848 0.732 0 
0.964 0 0.704 0 0.988 0 0.928 0 0.02 
0.136 0 0.996 0 0.5 0.012 0.952 0.728 0 
0.06 0 0.94 0.072 0.848 0 0.364 0 0.884 
0.12 0.108 0.648 0 0.996 0 0.556 0 0.2 
0.628 0 0 0 0.248 0 0 0.776 0.664 
0 0.996 0 0.42 0 0.604 0.416 0 0 
0 0.98 0 0.996 0 0.992 0 0 0.024 
0.136 0.328 0 0.924 0.72 0 0 0.188 0 
0.14 0.776 0.748 0.22 0 0.888 0.928 0.848 0.072 
0.196 0 0.052 0.8 0 0 0 0.952 0.94 
0.468 0.552 0.064 0.048 0 0.756 0 0 0.996 
0 0.564 0.012 0.948 0 0 0.964 0 0 
0 0.172 0 0.38 0.736 0 0 0.112 0.72 
0.116 0 0 0.004 0 0 0 0.1 0.196 
0.376 0.244 0 0 0 0 0 0.548 0 
0.988 0 0.992 0 0 0 0.056 0 0.988 
0 0 0.768 0 0.992 0 0.996 0 0.984 